

1048 atoms
23 bonds
39 angles
39 dihedrals
14 impropers

11 atom types
10 bond types
15 angle types
11 dihedral types
3 improper types

-10           44      xlo xhi
-16.3128      16.3128 ylo yhi
-16.3128      16.3128 zlo zhi

Masses

1 14.0070
2 12.0010
3 12.0010
4 12.0010
5 1.0080
6 1.0080
7 1.0080
8 1.0080
9 10.8110
10 18.9984
11 196.96

Atoms

1 1 1 -0.01 0.789222562635851 1.64547204305876 -1.6062963972754
2 1 2 0.0581 -0.0391709970600844 0.516248306095186 -1.85274932821577
3 1 1 0.0795 0.666828947615547 -0.590989700445611 -1.49997843284786
4 1 3 -0.1671 1.94158313816149 -0.114537510183358 -1.12235018267135
5 1 3 -0.1925 1.97240481356615 1.19356283611481 -1.0767502545224
6 1 4 0.0328 0.454060143513094 3.08617216077758 -1.39418149644453
7 1 4 -0.0795 -0.785546365579877 3.44796402814554 -2.35764732735031
8 1 4 -0.1657 0.336000882955765 -2.01872165593396 -1.81356538739699
9 1 5 0.2587 2.59928353624377 1.86178853767433 -0.666714446187555
10 1 6 0.2046 -1.06219831540366 0.495649356952524 -1.77442504122684
11 1 5 0.2482 2.62998188867898 -0.802815751268961 -0.749617906899536
12 1 7 0.1293 0.953008327346034 -2.56667624507507 -1.28549203426792
13 1 7 0.1293 0.431417870455058 -2.17212920501426 -2.80262297285539
14 1 7 0.1293 -0.626553837396612 -2.35806597796032 -1.44771791685393
15 1 7 0.0892 0.234118916464271 3.21977022107957 -0.285194391777638
16 1 7 0.0892 1.39251686406536 3.71549613369498 -1.47045442999374
17 1 8 0.0556 -1.10224628193392 4.53835398838199 -2.05926183934709
18 1 8 0.0556 -0.319903569184157 3.47042703383099 -3.36169848334889
19 1 8 0.0556 -1.5871361661946 2.68259136961682 -2.12889511739332
20 2 9 0.8275 -0.707903062825855 -1.24603317962151 1.98627065376601
21 2 10 -0.4469 0.556857635691668 -1.60768082184011 1.75357726492407
22 2 10 -0.4469 -0.754414445052473 -1.11529010248559 3.30579246180745
23 2 10 -0.4469 -0.97860937960106 0.0413119182878826 1.6072399063101
24 2 10 -0.4469 -1.77664917219404 -1.89053418465346 1.52711893397115
25 3 11 0 20.2862136257381 16.2684917860419 -16.2819688744671
26 3 11 0 22.0460968391903 -14.3436153707955 -16.2439663112615
27 3 11 0 22.1279572171851 -16.2802860966718 -14.1573368356639
28 3 11 0 20.3042080509503 -14.174082070094 -14.3277314031629
29 3 11 0 24.0749218899892 16.2709516195391 16.1990491040456
30 3 11 0 26.1085408609264 -14.4210852126512 16.0964835543534
31 3 11 0 26.0916883073228 16.2586851342504 -14.3446795884184
32 3 11 0 24.0960047345309 -14.3356953098466 -14.2569037025959
33 3 11 0 28.3734908754091 16.2297608285064 -16.2207668033581
34 3 11 0 30.3025396582965 -14.3025724378757 -16.306210611542
35 3 11 0 30.2537769103252 16.2785957780143 -14.1553490149563
36 3 11 0 28.2124030929003 -14.3866622712373 -14.0744289395582
37 3 11 0 32.2971251068535 16.2244030562252 -16.272094906715
38 3 11 0 34.1142432434579 -14.15254352663 -16.2853576886242
39 3 11 0 34.2217453221221 -16.2754062674755 -14.3643898298853
40 3 11 0 32.1449424123985 -14.4147236688895 -14.3138385541419
41 3 11 0 20.1711654046909 -12.2353546951644 16.2344280328285
42 3 11 0 22.2795073222808 -10.2175632081194 16.2918646521978
43 3 11 0 22.1676527458352 -12.1928135957124 -14.2472782910702
44 3 11 0 20.2416757626713 -10.1104558011408 -14.2143076574269
45 3 11 0 24.0258623922097 -12.2673864687277 -16.2138063251859
46 3 11 0 26.2320152921667 -10.2889544103902 -16.1838458068862
47 3 11 0 26.0678085876452 -12.1795023915637 -14.1534713754899
48 3 11 0 23.9632814231973 -10.1655409177821 -14.157694609933
49 3 11 0 28.3582801086433 -12.3058304668057 -16.1977983738153
50 3 11 0 30.1494537951145 -10.2288383864057 16.1743660264818
51 3 11 0 30.293511724828 -12.3153808241534 -14.2152926813068
52 3 11 0 28.2657637826524 -10.1761640926163 -14.130268877227
53 3 11 0 32.1960354812881 -12.2196855852267 -16.301136648045
54 3 11 0 34.1393904842902 -10.2358609252152 -16.2932472539785
55 3 11 0 34.074013764179 -12.3867446246701 -14.2610464045887
56 3 11 0 32.2123687625787 -10.2426212782862 -14.2370405046959
57 3 11 0 20.185366341235 -8.24455398209228 -16.2418293442607
58 3 11 0 22.1791126896929 -6.26585503855538 16.3025783672492
59 3 11 0 22.058981199154 -8.15006455413917 -14.3274568913493
60 3 11 0 20.2122628128571 -6.16447388595344 -14.3414592796977
61 3 11 0 24.1625248001705 -8.19659095650978 -16.2087217070377
62 3 11 0 25.999338946359 -6.26605685763464 16.2525766834534
63 3 11 0 26.0895693798692 -8.12728977683793 -14.219397229782
64 3 11 0 24.0301103495082 -6.1311058378167 -14.2749737792377
65 3 11 0 28.1502687152282 -8.23497247489504 16.2141957554329
66 3 11 0 30.2988663623767 -6.24750546080364 16.2642394331721
67 3 11 0 30.250942387477 -8.37094804645821 -14.3495162344167
68 3 11 0 28.1877473809788 -6.2370313755167 -14.289946748712
69 3 11 0 32.1269344567094 -8.27514379563505 16.2439906487105
70 3 11 0 33.9315288060762 -6.15963522985683 16.1703244251467
71 3 11 0 34.1481814411677 -8.18478234649563 -14.4638155636636
72 3 11 0 32.1395097791752 -6.15524172962479 -14.309750001901
73 3 11 0 20.2727298632881 -4.06477687414638 16.2312746554133
74 3 11 0 22.2112323437391 -2.0444625160836 16.2838021979408
75 3 11 0 22.1881699106783 -4.20472865225407 -14.3791826704703
76 3 11 0 20.2957186595893 -2.17601656963353 -14.3592288413599
77 3 11 0 24.1872063933241 -4.11408594282288 -16.2493767351767
78 3 11 0 26.1493971489577 -2.04789395427073 16.2213002431989
79 3 11 0 26.2688868425903 -4.08350626004062 -14.3066189169639
80 3 11 0 24.1229163607262 -2.14898163488174 -14.3132185319389
81 3 11 0 28.2166808849248 -4.04473640836451 16.2839010992702
82 3 11 0 30.2502946301926 -2.00220296028037 16.0534522156968
83 3 11 0 30.1667335209038 -3.93958083785313 -14.2564063113193
84 3 11 0 28.1633477630504 -1.96284136308433 -14.3144725003519
85 3 11 0 32.1290064765553 -4.11784401716822 -16.1782272784001
86 3 11 0 33.9401255510279 -2.07120220057568 -16.2640218521557
87 3 11 0 34.1519392065019 -4.05093190719147 -14.3259710796784
88 3 11 0 32.0296294896201 -1.92809288250921 -14.2668202399638
89 3 11 0 20.1942096230257 -0.10890680451362 -16.1984180854944
90 3 11 0 21.9139924984743 2.11483652703716 16.2669547154695
91 3 11 0 22.0846260404562 -0.0127440561583438 -14.2778185917154
92 3 11 0 20.2377237492213 1.99776715060825 -14.2814569888101
93 3 11 0 23.9414367020134 0.192989421382636 16.2644242238132
94 3 11 0 26.0641103024533 2.11644547358913 16.171008059732
95 3 11 0 26.1023369599146 -0.0241508627845424 -14.3381529922266
96 3 11 0 24.0114893956048 2.15189273692838 -14.3541931950976
97 3 11 0 28.1372481236316 -0.0318930474995375 -16.2466990038157
98 3 11 0 30.3418090018476 1.99399713170556 16.2837317854745
99 3 11 0 30.1933508931142 0.0375685607056169 -14.1054992840884
100 3 11 0 28.1399978799955 2.07639417954945 -14.3130313616956
101 3 11 0 32.0473888287866 0.048281242323425 -16.2602267699636
102 3 11 0 34.0333381870273 2.09579781802956 -16.2089933098567
103 3 11 0 34.0931001589824 0.133199611005304 -14.3996180853814
104 3 11 0 32.1090658049393 2.12409075213951 -14.1426188190848
105 3 11 0 20.1715889141437 4.25515429914312 -16.2606998053148
106 3 11 0 22.149190830071 6.22734888280703 16.2138892005607
107 3 11 0 22.0916516787005 4.11122540459349 -14.2912531147321
108 3 11 0 20.2049982086198 6.1785182162333 -14.3237663618252
109 3 11 0 24.0960741764333 4.10073745501574 16.1653187416068
110 3 11 0 26.2408753939743 6.19345362614745 -16.2654126130993
111 3 11 0 25.9539056966729 4.21076116367952 -14.3236713466023
112 3 11 0 24.1267630441345 6.20541246478199 -14.4282776577064
113 3 11 0 28.1156594084021 4.12795184666295 16.2987265422329
114 3 11 0 30.1809830991309 6.24997436368909 -16.2540350817776
115 3 11 0 30.0513748537243 4.13425435085376 -14.297569971992
116 3 11 0 28.1599555925974 6.13485014256631 -14.2554975200758
117 3 11 0 32.1830266861247 4.16589280386832 -16.2181143085274
118 3 11 0 34.1699569621398 6.04495739158839 -16.1912287204133
119 3 11 0 34.2077159759999 4.15650529749284 -14.1973644165455
120 3 11 0 32.0594053577932 6.15384086238471 -14.1811032813577
121 3 11 0 20.0744336115522 8.12535495980054 16.2416489730914
122 3 11 0 22.1022225492145 10.2915802363862 16.1825275104611
123 3 11 0 22.0314328982801 8.09144210016985 -14.388153926702
124 3 11 0 20.1430923787581 10.1443753092898 -14.2502270307905
125 3 11 0 24.1200758645594 8.22905954611244 16.2099567897289
126 3 11 0 26.0672467913776 10.4123385495419 16.250772456182
127 3 11 0 26.0655200910927 8.13850190218974 -14.403909547088
128 3 11 0 23.9154672850045 10.3671269429177 -14.4239283632724
129 3 11 0 28.1275388711416 8.34184345346726 16.2876415145088
130 3 11 0 30.2935534724763 10.1578686403172 16.3097126371471
131 3 11 0 30.0939608914497 8.19751365117989 -14.2668604143232
132 3 11 0 28.2037239530353 10.1486432754617 -14.2999890057618
133 3 11 0 32.269866640849 8.10937171655107 -16.3041331950294
134 3 11 0 34.1419806878064 10.1517067115812 -16.2253314367581
135 3 11 0 34.1169699262206 8.0551635607294 -14.1546616867925
136 3 11 0 32.2812414189577 10.0866138879352 -14.1535688613124
137 3 11 0 20.0391272760376 12.2909104095713 16.2971064417834
138 3 11 0 22.040005478698 14.314711740465 16.2846504235996
139 3 11 0 22.0756821698857 12.3308740125209 -14.2709092426342
140 3 11 0 20.028317165821 14.3965346961334 -14.4048194770997
141 3 11 0 24.0571907945602 12.3037136656548 16.2833738983214
142 3 11 0 25.9975056772198 14.1289254694688 16.2189039589946
143 3 11 0 26.1431617233295 12.2183480593553 -14.1495184555769
144 3 11 0 24.1095540951138 14.2969730343275 -14.1902478763134
145 3 11 0 28.1157089525319 12.1223651185871 -16.1602079394996
146 3 11 0 30.3405784687079 14.1307891743199 -16.1818243829604
147 3 11 0 30.239950199249 12.2533297198286 -14.1398491814897
148 3 11 0 28.1372767615958 14.2003141571662 -14.2315212578485
149 3 11 0 32.1924339924185 12.2328379413356 -16.2357660156862
150 3 11 0 34.153955560058 14.3524833041812 -16.2526609005107
151 3 11 0 34.1421743581677 12.203003456696 -14.3173376324042
152 3 11 0 32.2825101498313 14.2969729912439 -14.340933637951
153 3 11 0 20.2342216457666 -16.2688275800441 -12.1987540704485
154 3 11 0 22.09001457811 -14.1780293566253 -12.2878726117321
155 3 11 0 22.1634526477339 16.2981728030346 -10.1080971685484
156 3 11 0 20.0057686549313 -14.2526385889676 -10.1248295131022
157 3 11 0 24.1241604161432 -16.181905402857 -11.9670364048808
158 3 11 0 26.0878616395359 -14.2688741528551 -12.1168443824108
159 3 11 0 26.1607860431988 -16.2334532696587 -10.1363786591428
160 3 11 0 23.8449799618155 -14.2094689800479 -10.0412214019967
161 3 11 0 28.0486654785478 16.2567330448613 -12.2178325646636
162 3 11 0 30.256723083798 -14.4175588716604 -12.0599784060788
163 3 11 0 30.1636481210915 16.2585584530054 -10.1319379058862
164 3 11 0 28.2157069486442 -14.2377092691207 -10.3530111590712
165 3 11 0 32.205233207017 -16.2974801949912 -12.2093388699855
166 3 11 0 34.073595081653 -14.1795437791435 -12.1023272999428
167 3 11 0 33.9992133511165 16.2737227635091 -10.2486059054629
168 3 11 0 32.1547521725024 -14.2936278538733 -10.1205190843701
169 3 11 0 20.3236798772452 -12.2327927710367 -12.2175638547893
170 3 11 0 22.1682529103898 -10.2275564966701 -12.1719203195045
171 3 11 0 21.9489296974035 -12.235338387222 -10.0841337543549
172 3 11 0 20.135092517474 -10.1113738922004 -10.1966538155086
173 3 11 0 24.0401398571386 -12.3578408531961 -12.2610582086918
174 3 11 0 26.1659847684986 -10.3154222279807 -12.3088739045486
175 3 11 0 26.07051753528 -12.2577492802604 -10.0174533715866
176 3 11 0 24.064215801373 -10.2008995109889 -10.1298596646316
177 3 11 0 28.2781120056975 -12.1930515891813 -12.1720540095193
178 3 11 0 30.3184628084458 -10.1941801503634 -12.1863941324351
179 3 11 0 30.2558668920697 -12.1425515719048 -10.1878889098472
180 3 11 0 28.1833568213145 -10.2222582884002 -10.2605121339945
181 3 11 0 32.196655162378 -12.3221599182049 -12.1230826766347
182 3 11 0 34.1394813132591 -10.0823953766225 -12.195744743818
183 3 11 0 34.0865181416617 -12.055656506253 -10.1028457819207
184 3 11 0 32.2530129648356 -10.1179523792911 -10.0761016849258
185 3 11 0 20.3037037420451 -8.25031127389665 -12.1726310670362
186 3 11 0 21.9590200438493 -6.0690814904598 -12.2944352523734
187 3 11 0 22.2505033530283 -8.09231497881818 -10.1737548362012
188 3 11 0 20.022328848539 -5.97930124134815 -10.2369895247246
189 3 11 0 24.0449105253559 -8.09250373405745 -12.1575367788281
190 3 11 0 26.0493416284796 -6.06603796121615 -12.2177913914439
191 3 11 0 26.0638012831917 -8.15004223278921 -10.1202102832619
192 3 11 0 24.0877103906488 -6.07467440541387 -10.1448489055191
193 3 11 0 28.2063172417846 -8.09404726048713 -12.2341421798459
194 3 11 0 30.1683038693885 -6.19897033449199 -12.2088998765311
195 3 11 0 30.1793963007642 -8.13115492203832 -10.2254521360578
196 3 11 0 28.1251642594232 -5.92248384617216 -10.2352310515693
197 3 11 0 32.2202217195573 -8.1752624066869 -12.2762444637458
198 3 11 0 34.2027195306134 -6.02922302562019 -12.4283370529476
199 3 11 0 34.2506806644851 -8.24880731916497 -10.1361550805029
200 3 11 0 32.3701267081519 -6.17084329302998 -10.383489298329
201 3 11 0 20.0103635390373 -3.93452592712188 -12.1901159286547
202 3 11 0 22.1110813038619 -2.01637079616897 -12.3934627987265
203 3 11 0 21.9843321583983 -4.09415353569873 -10.3018448425924
204 3 11 0 20.1220713612574 -1.85189748887481 -10.2005362808426
205 3 11 0 24.0790307704715 -4.08174707622095 -12.2176437810223
206 3 11 0 25.9598586191192 -1.9072526198287 -12.1324624495862
207 3 11 0 26.091102742462 -3.91822207745151 -10.2445152560734
208 3 11 0 23.9161194748437 -1.96892615771966 -10.2425885543441
209 3 11 0 28.2538136433546 -4.02910454927589 -12.2432374434118
210 3 11 0 30.3079185745858 -2.04079566858021 -12.0980041710713
211 3 11 0 30.2881526256838 -4.05118701013296 -10.2916928727404
212 3 11 0 28.0612985047512 -1.95391759245119 -10.2874368532009
213 3 11 0 32.1935535231233 -4.15786453596444 -12.2457493494453
214 3 11 0 34.1558452802715 -2.11884543248383 -12.2906808214346
215 3 11 0 34.0820210695277 -4.10485551207137 -10.1976353415212
216 3 11 0 32.1695630101013 -1.97881512892823 -10.1477755415369
217 3 11 0 20.0100262290561 -0.0264660506556377 -12.3438329699764
218 3 11 0 22.0638663422238 2.01454147933585 -12.3074306230074
219 3 11 0 22.0374586101943 -0.0463227215248645 -10.2725636454525
220 3 11 0 20.0898915923127 1.86809991071248 -10.1765038394792
221 3 11 0 24.1786593278576 0.0355396233938295 -12.2363616577196
222 3 11 0 26.181009005874 2.19717478551011 -12.3811390684836
223 3 11 0 26.0180949573801 0.172932261649254 -10.1974747378683
224 3 11 0 23.9720684183787 2.07781915435387 -10.2780970357253
225 3 11 0 28.0864305194541 0.108153087068999 -12.1746060765882
226 3 11 0 30.195488083364 2.09345012223565 -12.1815796330488
227 3 11 0 30.0155473985533 0.164914299258397 -10.0787893705631
228 3 11 0 28.1367999549428 2.10581277586682 -10.1719252945543
229 3 11 0 32.1616753850578 0.0464464078665342 -12.2050172520765
230 3 11 0 34.1519051033037 2.04267285168769 -12.3032327896519
231 3 11 0 34.1479667346394 -0.0395516633671147 -10.2023826559005
232 3 11 0 32.0836939644114 2.07097242894127 -10.1691089065003
233 3 11 0 20.1432184242528 3.87820934572062 -12.138892587588
234 3 11 0 22.0474699081042 6.01704263939993 -12.2561099710926
235 3 11 0 22.0009494766778 3.98371247054029 -10.2304675689593
236 3 11 0 20.1625128532971 6.1114608934159 -10.17101669464
237 3 11 0 23.9693588385173 4.09330551521521 -12.2339001482554
238 3 11 0 26.2106988169242 6.21341457800942 -12.3146897392803
239 3 11 0 26.0711210755088 4.16845875583794 -10.2342010089876
240 3 11 0 23.8057973616999 6.09519030709458 -10.1051821584596
241 3 11 0 28.0437689023579 4.2389006433516 -12.1734752111311
242 3 11 0 30.1711258242279 6.18153049320104 -12.1056935820485
243 3 11 0 30.2599317658294 4.08503252722792 -10.2490627737468
244 3 11 0 27.9903002043875 6.24671056064276 -10.1367668276304
245 3 11 0 32.1439413080398 4.04858456354626 -12.1963135787956
246 3 11 0 34.0720946756624 6.07484926687102 -12.2181185830721
247 3 11 0 34.1069508188252 3.95223947172053 -10.1329378393793
248 3 11 0 32.1867741457898 6.04404906366404 -10.2823575064316
249 3 11 0 20.1787685683138 8.14331640681212 -12.0966444787454
250 3 11 0 22.1582199625907 10.2489106986375 -12.2389961082869
251 3 11 0 22.0305803435909 8.10068728689314 -10.1139271339987
252 3 11 0 20.2132987695169 10.3635132835721 -10.1541504168559
253 3 11 0 23.9342582167141 8.18149085636562 -12.2437933870595
254 3 11 0 25.8860875047017 10.0818215319415 -12.3024054307317
255 3 11 0 25.9427046633782 8.28798992100404 -10.1238726382609
256 3 11 0 23.9670205615332 10.2704960942329 -10.1321746375059
257 3 11 0 28.1274215539446 8.18974727523078 -12.2370052348605
258 3 11 0 30.1134796999439 10.204518084134 -12.1113174840683
259 3 11 0 30.2495413957784 8.16857008346663 -10.0091332542589
260 3 11 0 28.2067610404281 10.0934126942366 -10.0785637693873
261 3 11 0 32.0919398690851 8.08423155350254 -12.1152058882921
262 3 11 0 33.9358492585155 10.1393751406718 -12.1712215403924
263 3 11 0 34.1529704221898 8.04848721075766 -10.1941016264155
264 3 11 0 32.0935450520663 10.1986508831572 -10.0747207145337
265 3 11 0 20.1882164018662 12.3799967535336 -12.2498810348892
266 3 11 0 22.2103030600427 14.3566683506487 -12.2465796817531
267 3 11 0 22.0416581384456 12.3566754527365 -10.1775143965965
268 3 11 0 20.1067633060254 14.3540192111789 -10.2472072680593
269 3 11 0 24.0102818687646 12.251710022089 -12.2166033976398
270 3 11 0 26.0769682923772 14.2581115499696 -12.1869006373602
271 3 11 0 26.043020524529 12.1827696210184 -10.1539030943907
272 3 11 0 23.978791749 14.0614402158143 -10.091965381536
273 3 11 0 28.001072496315 12.118776483463 -12.0658120412173
274 3 11 0 30.139372783319 14.2191083476407 -12.2694285205773
275 3 11 0 30.1887919863145 12.3404011278525 -10.1493644951774
276 3 11 0 28.1964271223684 14.3462210434255 -10.0398769577114
277 3 11 0 32.1700116865722 12.3068777935851 -12.1629586531408
278 3 11 0 34.1286617367527 14.2540191305701 -12.3245872271592
279 3 11 0 33.9761796869626 12.3003017543382 -10.1210273807529
280 3 11 0 32.0092067807362 14.365227940827 -10.1142808099271
281 3 11 0 20.1152036786466 16.3017869611947 -8.21127202087491
282 3 11 0 22.0163038466465 -14.2018149577162 -8.11939481106814
283 3 11 0 21.9826871172504 -16.286925782187 -6.13447976553121
284 3 11 0 20.0765759008817 -14.0686515393448 -6.12434484925108
285 3 11 0 24.1680548290453 16.2622493779671 -8.20108352112966
286 3 11 0 26.0530310377615 -14.1761623706437 -8.07285611942638
287 3 11 0 26.0251304328785 -16.2375902621462 -6.08686800182341
288 3 11 0 23.9307033191984 -14.2698506929702 -6.15318520212756
289 3 11 0 28.1559083753817 16.2384975380798 -8.12452924552992
290 3 11 0 30.1289430973208 -14.0698442815108 -8.17250249849829
291 3 11 0 30.179015890154 -16.2939577759933 -6.18638644314859
292 3 11 0 28.0461284046482 -14.3404618287291 -5.92973128661621
293 3 11 0 32.2315314780269 -16.130052170327 -8.13061966993947
294 3 11 0 34.1898363030573 -14.0426161990804 -8.16343907707739
295 3 11 0 34.0660674057425 -16.212053956733 -6.17143618225234
296 3 11 0 32.0344138196985 -14.2225012711782 -6.17395252567717
297 3 11 0 20.0495617630151 -12.0148560513472 -8.17803806146023
298 3 11 0 22.0437306648566 -10.0918329014416 -8.22045641340774
299 3 11 0 22.0247255753406 -12.1252403787765 -6.11068155752007
300 3 11 0 20.0551315975745 -10.1851929790727 -5.99282487121685
301 3 11 0 23.9025880610252 -12.33507108098 -8.01779644396905
302 3 11 0 26.0328675380288 -10.1574250490512 -8.17165426654968
303 3 11 0 26.0771725756638 -12.2346583115041 -6.1716939054003
304 3 11 0 23.8904983183483 -10.1414960974111 -5.985125037757
305 3 11 0 28.0845209592647 -12.1805285686242 -8.04892680868458
306 3 11 0 30.150022520983 -10.043803958956 -8.20993674758829
307 3 11 0 30.3100798765619 -12.0836764377674 -6.05486608336658
308 3 11 0 27.9211242292791 -10.2289023600948 -6.14375401812947
309 3 11 0 32.1386723859929 -12.197066447825 -8.17117177370496
310 3 11 0 34.0537203448908 -10.2264422803237 -8.03225349202178
311 3 11 0 33.978064876285 -12.2391372212527 -6.15348956982067
312 3 11 0 32.152199433606 -10.0390419703272 -6.18125639511297
313 3 11 0 20.0668966246583 -8.01088673139998 -8.26482880556191
314 3 11 0 21.9273144519898 -6.14943353691744 -8.10083646538099
315 3 11 0 21.9029846756672 -8.139235351199 -6.03667924174536
316 3 11 0 19.9515155956306 -6.08914110890704 -6.13332814545455
317 3 11 0 23.9991559121953 -8.05506674621591 -8.10406101094489
318 3 11 0 26.0414216798481 -5.99118824426328 -8.16969673273142
319 3 11 0 26.04373464249 -8.12925354200983 -6.15961119107617
320 3 11 0 23.837847488677 -6.09632425075836 -6.00504558480795
321 3 11 0 28.000434664818 -8.16974313758386 -8.2861288656239
322 3 11 0 30.2278391974916 -6.16260042908496 -8.21591736502383
323 3 11 0 30.0520365977487 -8.13062796636693 -6.16292426152115
324 3 11 0 28.0591946049118 -6.15226636053806 -6.20921858128934
325 3 11 0 32.1779238161702 -7.98750685532121 -8.19533913538814
326 3 11 0 34.1755866409388 -6.10005135568441 -8.27120497377497
327 3 11 0 34.0806652463814 -7.98524567278551 -6.17361962124847
328 3 11 0 32.1164092394114 -6.20601483449825 -6.14698221189767
329 3 11 0 20.1982793270702 -4.06819372400724 -8.19229357183263
330 3 11 0 22.1909940577626 -2.11711777579219 -8.15163050201514
331 3 11 0 21.9114984790416 -4.049799097326 -6.2081849851236
332 3 11 0 20.1043031948492 -2.1613553721871 -6.25453295181961
333 3 11 0 24.066715927494 -4.12509334764767 -8.15104963591886
334 3 11 0 25.9782622900065 -2.11607695334127 -8.08164593718383
335 3 11 0 26.2219985937195 -3.97950830412494 -6.14652720483445
336 3 11 0 23.9174860142989 -2.25634851779532 -6.0040280050423
337 3 11 0 28.4147896174727 -4.08668708853039 -8.20747126532236
338 3 11 0 30.0445908828653 -2.05769282171771 -8.09666340193928
339 3 11 0 30.1402722157298 -4.16455907459712 -6.06282490700402
340 3 11 0 28.2234737738403 -2.00335722375024 -5.98863162984923
341 3 11 0 32.1456554366938 -4.12810758539733 -8.23861986569865
342 3 11 0 34.0436732590292 -2.04987067017413 -8.19798224021995
343 3 11 0 33.929483574529 -3.99216436124489 -6.2193547390055
344 3 11 0 31.9651912969619 -2.01191820492188 -6.27253212650772
345 3 11 0 20.1511236725177 0.0314978396153225 -8.16533610152701
346 3 11 0 22.0206220560644 2.00508693104409 -8.21870531692574
347 3 11 0 22.0907125108627 -0.110320894517278 -6.08568168807412
348 3 11 0 20.1726186663047 1.94928584959006 -5.9539637441932
349 3 11 0 24.0403313315085 -0.20406205308892 -8.12499166386612
350 3 11 0 25.9307848519251 1.97242179901855 -8.09635818582661
351 3 11 0 26.0539621770715 -0.176987325656688 -6.02063919033369
352 3 11 0 24.0591566749229 1.95860432816526 -6.17750344136859
353 3 11 0 28.0162377625842 -0.09526142449198 -8.13823821775911
354 3 11 0 30.0758314461109 2.19981418314706 -8.17609783623386
355 3 11 0 30.1556164701267 -0.0173792963460667 -6.1669080931844
356 3 11 0 28.1754436648241 1.88281374275997 -6.00356974020097
357 3 11 0 32.0419713456069 0.0225324547220136 -8.18436695199357
358 3 11 0 34.030441016233 1.89572931486507 -8.12793626842388
359 3 11 0 33.8397618593741 -0.0759406795447686 -6.06134742417494
360 3 11 0 32.1476731121676 2.08540884126154 -6.29835441586135
361 3 11 0 20.0997679388248 3.93239666125503 -8.11592321231618
362 3 11 0 21.9363781727968 6.01444321639915 -8.06259772569285
363 3 11 0 21.9412398397635 4.05697044026794 -6.11385955732134
364 3 11 0 20.0155667289856 6.08348911951846 -6.03872403591022
365 3 11 0 24.1312463120645 4.07472461854024 -8.10164779406042
366 3 11 0 25.8589726146498 6.14033542309058 -8.18471023826568
367 3 11 0 26.248867025743 3.93004824381206 -6.22998268786639
368 3 11 0 23.8810642600781 6.11920276543636 -6.09307982457724
369 3 11 0 28.1145181895389 4.09671816698788 -8.13019096768768
370 3 11 0 30.1657074661863 5.95895955464258 -8.17630088489577
371 3 11 0 30.2939614763572 4.08509803880526 -5.97773975713836
372 3 11 0 28.1092609523466 6.02871173120104 -6.14481104356102
373 3 11 0 32.0917574142988 4.15298881524289 -8.10575163746793
374 3 11 0 34.2339328283757 5.91590230458343 -8.23937104024514
375 3 11 0 34.2796279128478 3.900306522174 -6.16462809404427
376 3 11 0 32.3642449692104 6.05146415353707 -6.11404711598937
377 3 11 0 20.1640796755503 8.1665740418244 -8.14492148650936
378 3 11 0 21.9194460823158 10.2282643047377 -8.01846625558427
379 3 11 0 21.9962290879236 8.14195758977329 -6.04345182354582
380 3 11 0 20.1133273258979 10.2071443197271 -6.07202951799538
381 3 11 0 23.9031574817581 8.19751020078731 -8.10596775011125
382 3 11 0 26.0771568138031 10.3473119718111 -8.12683229955816
383 3 11 0 25.9599257402904 8.17838022050625 -6.01667281973122
384 3 11 0 23.8168354735125 10.0974204277237 -6.04998677892313
385 3 11 0 27.9380518386295 8.11212266174974 -8.05506623056677
386 3 11 0 30.1502841608241 10.0551539992734 -8.03603036024239
387 3 11 0 30.2557612450748 8.05619674715692 -6.20337817614931
388 3 11 0 28.1034986866839 10.2184627220959 -6.12006846524406
389 3 11 0 32.1688539974785 8.09434749393277 -8.10992826991417
390 3 11 0 34.0612386508519 10.3162925852939 -8.28107115265707
391 3 11 0 34.0635664248903 8.13886522891256 -6.14344262942998
392 3 11 0 32.2095947255421 10.143707308269 -6.19123664296946
393 3 11 0 20.1184920659073 12.4003329511289 -8.07680990833296
394 3 11 0 22.0855343638598 14.2571395062646 -8.09930308234713
395 3 11 0 22.0711972883182 12.2789061432479 -6.06939031854225
396 3 11 0 20.0381335184268 14.3371310866914 -6.05577151541089
397 3 11 0 24.0558319885312 12.2111173400085 -8.0117919478773
398 3 11 0 26.1021195018484 14.2221692335761 -8.14745222091293
399 3 11 0 25.973825740419 12.0847395741679 -5.85924192032455
400 3 11 0 23.9989546721118 14.2176754433517 -6.05390250569351
401 3 11 0 28.2155401160928 12.1912649218619 -8.11181546514545
402 3 11 0 30.1249732531368 14.1922721928162 -8.14547214181567
403 3 11 0 30.127295968225 12.1627605005024 -6.06228154296455
404 3 11 0 28.0911836077895 14.2539654014967 -5.97699965411442
405 3 11 0 31.9711034417364 12.2513007226219 -8.17133827821964
406 3 11 0 34.0113274376193 14.258557578385 -8.17126940457732
407 3 11 0 33.9558659373982 12.2288132684567 -6.23919202388
408 3 11 0 32.0380870473572 14.4274647874871 -6.18556188916573
409 3 11 0 20.1313076557632 -16.1801086610971 -4.05416160112232
410 3 11 0 22.1088726526588 -14.184951587922 -4.05424593993251
411 3 11 0 22.0396586550785 -16.2314345737074 -1.88871687156372
412 3 11 0 20.126022280922 -14.1398451205119 -2.13330272232391
413 3 11 0 23.8507127289185 -16.2035225123033 -4.16361114300881
414 3 11 0 25.9882952817441 -14.3292258461068 -4.00436778802888
415 3 11 0 26.0985452347592 -16.1947374870638 -2.02553468200374
416 3 11 0 23.8955174480002 -14.2227932763483 -2.00814799418506
417 3 11 0 28.1894573650194 -16.2663505778948 -4.1267488194247
418 3 11 0 30.2394922479726 -14.3359971734502 -4.17846599266642
419 3 11 0 30.2175450311491 -16.2548224624574 -2.11572096501475
420 3 11 0 28.2108232571501 -14.1326936972639 -2.10167922053688
421 3 11 0 32.1725280141124 -16.2923863891076 -4.13519500502694
422 3 11 0 34.2014100989096 -14.2829355314074 -4.30749872914173
423 3 11 0 34.1525660247284 16.2978493824208 -2.4158025622067
424 3 11 0 32.2681766283301 -14.196667924109 -2.27008582391184
425 3 11 0 19.994244872332 -11.9861391502789 -3.93576216141188
426 3 11 0 22.0048054003947 -10.0983524962587 -4.01574461294529
427 3 11 0 22.041076860186 -12.0977321046835 -2.00398304406144
428 3 11 0 20.1446012995144 -10.239281136699 -1.72763805347046
429 3 11 0 23.9278353443894 -12.2437386934867 -4.13641973554904
430 3 11 0 25.9800617919686 -10.2139082962426 -3.98127464720603
431 3 11 0 26.0382670980144 -12.3263613143032 -2.10659316104475
432 3 11 0 23.9873304308768 -10.1758625057828 -2.02729346456161
433 3 11 0 28.1021857965327 -12.1433656604658 -4.05286436818222
434 3 11 0 30.0907766338742 -10.1755871737853 -4.15584933600315
435 3 11 0 30.2616214517126 -12.289223097081 -2.14139184332029
436 3 11 0 28.2426710051687 -10.3217496189295 -2.11455037308208
437 3 11 0 32.2679978334705 -12.1186063822248 -4.15784820192384
438 3 11 0 34.3275062565292 -10.0820524027847 -4.30132189522374
439 3 11 0 34.2763303440601 -12.202053923143 -2.16179204705946
440 3 11 0 32.4100407024078 -10.1678676863739 -2.13676298936619
441 3 11 0 20.070817109543 -8.11800518728212 -3.86920304942117
442 3 11 0 21.9388952615086 -6.12694661106762 -4.0104536416565
443 3 11 0 22.0226515722873 -8.23745848815249 -1.97206852625758
444 3 11 0 20.0099459313241 -6.10058044625845 -1.90353536696972
445 3 11 0 24.037595530625 -8.10401952897548 -3.92015767667147
446 3 11 0 26.1645130507754 -6.04968379639053 -4.01836418173783
447 3 11 0 26.1500887130392 -8.23596912757084 -2.09963865721684
448 3 11 0 23.9740034262032 -6.15658599021167 -1.99329689862286
449 3 11 0 27.933783944637 -8.16701956137683 -4.14397832873419
450 3 11 0 30.1680742406398 -6.16134779046539 -4.05519746714254
451 3 11 0 30.3462142987281 -8.3544592246097 -2.08400337107308
452 3 11 0 28.3996997954956 -6.15180739108812 -1.8667052687896
453 3 11 0 32.1443215148583 -8.14431216687482 -4.23962177000579
454 3 11 0 33.9825417729056 -6.08174838224366 -4.15568595763041
455 3 11 0 34.1861499132542 -8.09041060190013 -2.21459642679216
456 3 11 0 32.2115553811025 -6.1977663205704 -2.05501031758866
457 3 11 0 19.948870616806 -4.12909752134525 -3.99923475862824
458 3 11 0 21.864283647592 -2.05701858495481 -4.01429699585727
459 3 11 0 21.9207362978407 -4.13258289144391 -1.94220860547035
460 3 11 0 20.0591640189003 -2.17032001749311 -1.90074755555017
461 3 11 0 23.8790701226655 -4.19598631862205 -3.95667824152389
462 3 11 0 25.9914463091057 -2.18520070345195 -3.96786090044214
463 3 11 0 26.0112094101822 -4.04246871343516 -1.94759218089067
464 3 11 0 24.0220464987169 -2.03169894942866 -2.1039542024021
465 3 11 0 28.0571103871055 -4.05454561731807 -3.9239133472779
466 3 11 0 30.1028413723727 -2.02662088033164 -3.88809922463798
467 3 11 0 30.2404270024795 -3.8913257308687 -1.9941342225831
468 3 11 0 28.1042051025518 -1.97326035070162 -1.93525640577202