LAMMPS data file via write_data, version 3 Mar 2020, timestep = 70000

24 atoms
5 atom types

-5.0000000000000000e+01 4.4000000000000000e+01 xlo xhi
-1.6312799999999999e+01 1.6312799999999999e+01 ylo yhi
-1.6312799999999999e+01 1.6312799999999999e+01 zlo zhi

Masses

1 14.007
2 12.001
3 1.008
4 10.811
5 18.9984

Atoms # full

1 1 1 -0.517634092228358 -1.78546130276631 0.562475826882548 -1.72347901999521 0 0 0
2 1 2 0.193760231082803 -0.839264516578101 -0.513239243462588 -1.5296647312861 0 0 0
3 1 1 -0.473162744919933 1.09744149425805 1.7014051451542 -2.16982191200678 0 0 0
4 1 2 0.230747964856924 0.645037630285764 1.5320923739845 -1.03506213009139 0 0 0
5 1 2 0.123141269220692 -0.745738112831161 0.76819447808838 -0.638616884976601 0 0 0
6 1 2 0.0323535363529208 -3.15169644707757 -0.0386881120786549 -1.27132683671162 0 0 0
7 1 2 -0.193272620437782 -3.35740609858401 -0.420164504421341 0.254580445711921 0 0 0
8 1 2 0.0261935208160998 2.36564351047121 2.44793822917163 -2.22901698187881 0 0 0
9 1 3 0.163648461751609 -1.02830470311471 0.718303324937834 0.411448496527517 0 0 0
10 1 3 0.155926745495712 -0.779826497574354 -1.57990396017227 -1.48764511936801 0 0 0
11 1 3 0.138317647115795 1.10372479602742 1.83063814126533 -0.120750614997994 0 0 0
12 1 3 0.130363577319861 2.82845223991682 2.66984131735712 -3.15288136836869 0 0 0
13 1 3 0.109043667502422 3.21903811421375 2.02641856933171 -1.71168422786515 0 0 0
14 1 3 0.083795900000694 2.4336373716263 3.31916184183888 -1.63220752356304 0 0 0
15 1 3 0.135966885683558 -3.97652124521416 0.584434135090873 -1.63224856574261 0 0 0
16 1 3 0.0989950998189453 -3.38932125221612 -0.979496930286235 -1.81974192061266 0 0 0
17 1 3 0.121588570304938 -3.01511317412938 0.341426603720932 0.989907482708773 0 0 0
18 1 3 0.0904834275572163 -4.38811719051584 -0.478387918311184 0.491806479183475 0 0 0
19 1 3 0.152996989613981 -2.79318932853973 -1.33360424066121 0.507302424140885 0 0 0
20 2 4 0.886376207133521 0.961494716975415 -1.17792746384531 1.62839448250649 0 0 0
21 2 5 -0.520732821299065 -0.443570148284033 -1.39020782816555 1.22837218168917 0 0 0
22 2 5 -0.397126606814714 0.869886034186094 -0.0714827201779995 2.53337912510446 0 0 0
23 2 5 -0.313167812970051 1.58487917256368 -2.33830815796736 2.32818854586513 0 0 0
24 2 5 -0.458603002957789 1.68283599177236 -0.760368255302477 0.415523394541796 0 0 0


Velocities

1 -0.0025324801234607 0.00621399718249385 -0.00837456263144847
2 -0.00567519004202655 0.00082683518643049 -0.00202216067463995
3 -0.00266402912004286 -0.00234296614791173 -0.00447672784499371
4 0.0012383866153039 0.0011773718928279 -0.00920151821762638
5 -0.00110373000072773 0.00251796636568332 0.00477290650295898
6 0.00733864501211844 -0.00371695348211446 -0.000629251245614036
7 0.00955420727056494 -0.00517537585181869 0.00755232076113875
8 0.000261342317363425 0.00271621690356836 0.00207405210561413
9 -0.0129926718798042 -0.0024363918379862 -0.0197673171310405
10 0.0085402258707967 0.0532307958554459 -0.00395745977191783
11 -0.000471439048810964 -0.0165735184993289 0.0192085704340102
12 -0.0154868739373163 -0.00190294143551633 0.0265618898984348
13 0.00351349907051413 0.0152986685675977 -0.0207246693373828
14 0.00996658244685738 0.0040111962915043 0.0143765677284219
15 0.0135701786716067 -0.00949861109313573 0.00627924319462414
16 -0.0225372628810765 0.00471009924507157 0.0267600877018424
17 -0.0178873100086453 -0.00956887777729947 0.00782980597783724
18 0.00510482557981653 0.00593330431455813 -0.0325263441534947
19 -0.000725162147819103 -0.00433630995758445 0.000392582347801765
20 -0.0018250954293182 -0.00575156737008998 0.00336518554857077
21 -0.0017061934431157 0.00119060052563519 -0.00098611629203381
22 0.00371747819113216 0.000631943873544469 -0.000295717093825141
23 -0.00270001525960316 0.00295024429509119 -0.00141388052870298
24 -0.000217466038765935 -0.0053713005732719 0.00735083471749502
